ITEM: TIMESTEP
0
ITEM: NUMBER OF ATOMS
1374
ITEM: BOX BOUNDS pp pp pp
-2.3028411320742130e+01 2.3028411320742130e+01
-8.7560815053725012e+00 8.7560815053725012e+00
-8.7560815053725012e+00 8.7560815053725012e+00
ITEM: ATOMS id type xs ys zs
776 2 0.13422 0.318497 0.315351
775 1 0.134955 0.29297 0.267058
777 2 0.127115 0.329113 0.231616
737 2 0.0316038 0.258819 0.245231
738 2 0.0332915 0.173368 0.232915
736 1 0.0426458 0.214612 0.259016
828 2 0.163119 0.225205 0.139281
826 1 0.151676 0.212142 0.0955619
1474 1 0.121301 0.422172 0.192119
827 2 0.135721 0.247145 0.0968536
1476 2 0.116248 0.448507 0.238134
492 2 0.0764303 0.181796 0.288361
1475 2 0.140032 0.441785 0.178844
1056 2 0.0428839 0.326927 0.36573
1054 1 0.0395773 0.379097 0.351935
130 1 0.0989731 0.00556051 0.490961
970 1 0.0579469 0.486268 0.178414
676 1 0.0615805 0.0873953 0.0323143
971 2 0.0675672 0.497646 0.22551
491 2 0.108333 0.201991 0.283277
1420 1 0.0877415 0.493223 0.324944
1422 2 0.0705019 0.462931 0.328727
596 2 0.0902296 0.00363176 0.0992518
132 2 0.101623 0.0597252 0.493252
2113 1 0.0497544 0.245345 0.0734532
2114 2 0.0508825 0.192798 0.0882028
896 2 0.0282024 0.306947 0.142682
895 1 0.0196939 0.340191 0.179854
490 1 0.0947821 0.172301 0.312192
936 2 0.103561 0.371591 0.0671226
934 1 0.106131 0.323816 0.0414423
897 2 0.0319347 0.384364 0.17988
935 2 0.0880793 0.297653 0.04845
1084 1 0.118668 0.385426 0.399479
1086 2 0.105978 0.425266 0.382554
1877 2 0.0368488 0.0144637 0.150798
1455 2 0.028332 0.0514673 0.491036
609 2 0.128666 0.148329 0.0208253
2074 1 0.00896145 0.105215 0.17898
1454 2 0.0295874 0.136613 0.476453
1160 2 0.0168377 0.240642 0.433673
1159 1 0.0364076 0.228015 0.420289
1161 2 0.0347421 0.200976 0.372989
1035 2 0.166543 0.117204 0.378257
1085 2 0.132654 0.410809 0.43095
1101 2 0.132892 0.0461226 0.400641
1099 1 0.151682 0.0294089 0.384328
1100 2 0.14807 0.00132374 0.338409
869 2 0.0217367 0.460485 0.399408
972 2 0.0726953 0.491883 0.140315
1055 2 0.0220978 0.377978 0.322388
678 2 0.081566 0.0901632 0.0175756
677 2 0.0545614 0.0416782 0.00871779
419 2 0.138295 0.184948 0.450629
418 1 0.119156 0.165542 0.459418
420 2 0.10917 0.173667 0.412175
2115 2 0.0451971 0.24396 0.0201424
1713 2 0.101197 0.33377 0.494631
870 2 0.0234396 0.493927 0.479
2075 2 0.000840775 0.109339 0.128835
117 2 0.202512 0.217411 0.204396
115 1 0.199115 0.230035 0.256822
116 2 0.181731 0.259981 0.256108
658 1 0.173062 0.474897 0.167425
659 2 0.174671 0.489287 0.219986
498 2 0.179706 0.30555 0.0141952
660 2 0.185903 0.432247 0.162132
1537 1 0.224539 0.294325 0.37896
1539 2 0.208787 0.329451 0.372828
916 1 0.216638 0.367582 0.135541
1538 2 0.222164 0.258509 0.338145
328 1 0.221529 0.168499 0.119004
329 2 0.210207 0.146903 0.0785721
330 2 0.240004 0.178856 0.0962153
1034 2 0.179113 0.177867 0.326292
1033 1 0.174488 0.16771 0.378603
996 2 0.270009 0.291216 0.142786
994 1 0.266626 0.28862 0.196654
995 2 0.246871 0.304465 0.202742
1111 1 0.292539 0.125402 0.0980317
1113 2 0.299785 0.122013 0.149149
742 1 0.26786 0.261721 0.0356416
760 1 0.295803 0.153494 0.441475
1950 2 0.275969 0.0627486 0.273519
1948 1 0.265389 0.0162381 0.280593
1949 2 0.268462 0.00328024 0.333075
560 2 0.284418 0.38899 0.451193
836 2 0.172765 0.135734 0.00452119
561 2 0.260094 0.337358 0.424455
559 1 0.278828 0.336437 0.448103
918 2 0.228861 0.409065 0.120267
917 2 0.209717 0.346341 0.088582
761 2 0.295803 0.16121 0.387363
2030 2 0.214472 0.105213 0.482627
744 2 0.275924 0.212926 0.0231099
1446 2 0.272863 0.199925 0.251788
1444 1 0.284813 0.165108 0.279853
858 2 0.285645 0.39333 0.216078
1112 2 0.307118 0.101236 0.0674811
641 2 0.243573 0.0197363 0.194611
642 2 0.227435 0.0696981 0.138258
640 1 0.232966 0.017853 0.147646
1022 2 0.25207 0.467873 0.0307996
2031 2 0.221516 0.184743 0.454255
2029 1 0.226378 0.148719 0.493323
134 2 0.266827 0.0496957 0.453088
2139 2 0.304156 0.300045 0.00605194
942 2 0.329561 0.4507 0.13683
671 2 0.330925 0.357931 0.393262
1445 2 0.303877 0.172297 0.25931
762 2 0.282238 0.190246 0.460559
902 2 0.184825 0.0101635 0.438363
1024 1 0.286869 0.493619 0.449113
1021 1 0.251637 0.477475 0.0845965
901 1 0.202017 0.00276889 0.468172
857 2 0.280526 0.462685 0.166259
856 1 0.292723 0.443777 0.206272
496 1 0.192789 0.346484 0.00287604
729 2 0.18263 0.458613 0.483802
940 1 0.350061 0.442175 0.133967
941 2 0.351971 0.388076 0.127992
670 1 0.351218 0.369173 0.396854
672 2 0.355993 0.391602 0.348616
1067 2 0.375522 0.282726 0.345316
843 2 0.396258 0.0128241 0.305001
1066 1 0.382177 0.24545 0.309374
1094 2 0.456386 0.0962496 0.340846
1051 1 0.464384 0.468318 0.167995
417 2 0.417627 0.370115 0.208769
416 2 0.439998 0.31891 0.171491
415 1 0.421587 0.317804 0.196824
1068 2 0.399991 0.265954 0.290083
2132 2 0.354072 0.144562 0.190829
2131 1 0.342038 0.168175 0.228623
2133 2 0.354666 0.203072 0.254448
22 5 0.412642 0.4402 0.388948
20 3 0.436764 0.454195 0.385482
21 5 0.443847 0.432535 0.328828
954 2 0.432943 0.19133 0.196956
803 2 0.383662 0.308385 0.0217506
863 2 0.364963 0.444921 0.233084
862 1 0.380011 0.444467 0.270782
804 2 0.38 0.254181 0.0884028
802 1 0.370757 0.295863 0.0627258
2003 2 0.341128 0.0808221 0.325256
952 1 0.431388 0.13684 0.198258
616 1 0.49231 0.423651 0.0232576
864 2 0.387191 0.495756 0.271446
1053 2 0.476286 0.424616 0.177887
557 2 0.431597 0.0575788 0.490078
480 2 0.392291 0.118014 0.0557193
479 2 0.375496 0.0594582 0.101475
478 1 0.37852 0.113296 0.0963848
25 5 0.420203 0.365979 0.491357
23 4 0.45152 0.419471 0.430794
24 3 0.440125 0.404439 0.49224
682 1 0.39507 0.0844493 0.484526
953 2 0.411438 0.126754 0.186727
154 1 0.476546 0.292681 0.145407
155 2 0.468394 0.273741 0.0988323
985 1 0.480868 0.0301877 0.181856
2004 2 0.339981 0.0200518 0.263846
1093 1 0.460402 0.0427134 0.337699
2002 1 0.34456 0.0276093 0.316623
1095 2 0.45998 0.0254551 0.38955
156 2 0.496441 0.302821 0.133279
556 1 0.450274 0.0338992 0.486324
637 1 0.470346 0.206728 0.322049
987 2 0.467528 0.066534 0.202726
1052 2 0.460119 0.465335 0.114582
2138 2 0.336911 0.30437 0.0118812
639 2 0.480826 0.245121 0.349503
387 2 0.488575 0.368656 0.398666
126 2 0.444337 0.0713261 0.0502324
638 2 0.481668 0.198019 0.277048
124 1 0.437375 0.0932928 0.00365126
223 1 0.137324 0.976803 0.237136
774 2 0.0607451 0.991227 0.444488
224 2 0.121807 0.982467 0.201218
731 2 0.148725 0.540228 0.466244
1876 1 0.0406106 0.961027 0.156647
866 2 0.0163243 0.798103 0.162588
772 1 0.0440935 0.976438 0.415316
281 2 0.0247739 0.726352 0.449171
595 1 0.0965609 0.95431 0.115918
597 2 0.102121 0.92854 0.0699867
1421 2 0.082903 0.540122 0.349967
1967 2 0.0277991 0.829566 0.353062
1504 1 0.126878 0.628188 0.184131
1505 2 0.119157 0.600695 0.141476
1506 2 0.111097 0.631093 0.219578
1331 2 0.0488738 0.644372 0.224635
958 1 0.138713 0.747383 0.0317287
959 2 0.133158 0.702484 0.0592651
960 2 0.146753 0.780493 0.0697319
1827 2 0.0905502 0.716102 0.266412
1826 2 0.0720772 0.668113 0.319422
1878 2 0.0555401 0.950286 0.12017
1210 1 0.0851876 0.822277 0.00431754
1212 2 0.105054 0.80648 0.00146738
1825 1 0.0788604 0.670931 0.267833
339 2 0.150857 0.557435 0.338576
1330 1 0.0318474 0.633742 0.195148
1332 2 0.0355564 0.584953 0.172519
1211 2 0.0772278 0.793028 0.0454741
821 2 0.0439458 0.711269 0.127009
820 1 0.0420445 0.753209 0.0923148
2140 1 0.0610013 0.622606 0.413456
2142 2 0.0664182 0.586641 0.452072
867 2 0.00912621 0.872425 0.202478
566 2 0.0618808 0.908424 0.244907
1377 2 0.123441 0.843643 0.238688
1375 1 0.118404 0.808317 0.278238
1376 2 0.134305 0.810742 0.31335
2039 2 0.123351 0.507417 0.0381057
2038 1 0.107663 0.535003 0.0610031
2040 2 0.100766 0.567949 0.0213396
565 1 0.0620173 0.880189 0.291707
567 2 0.0813382 0.860387 0.295376
1966 1 0.0103906 0.800812 0.345019
730 1 0.134124 0.573424 0.445971
338 2 0.155714 0.605484 0.267855
196 1 0.163381 0.855688 0.130682
767 2 0.161203 0.816737 0.415632
773 2 0.0519293 0.956841 0.368637
868 1 0.0186781 0.506759 0.427366
2141 2 0.0419717 0.607 0.397987
766 1 0.162993 0.852312 0.374403
1968 2 0.0109672 0.787145 0.292118
225 2 0.150928 0.943891 0.212149
337 1 0.163999 0.564588 0.296842
732 2 0.13523 0.618316 0.477017
1011 2 0.100226 0.531201 0.478859
1905 2 0.0543991 0.866684 0.489169
822 2 0.024208 0.743655 0.0659365
865 1 0.000856891 0.82446 0.187849
135 2 0.244318 0.989451 0.434659
133 1 0.264759 0.999178 0.432939
2073 2 0.189656 0.570085 0.142265
1023 2 0.249051 0.531553 0.0887233
2072 2 0.182461 0.654389 0.145138
1080 2 0.280624 0.867473 0.176991
1079 2 0.277258 0.917253 0.247112
1078 1 0.277689 0.865021 0.231047
1025 2 0.293942 0.518711 0.404258
712 1 0.252119 0.645628 0.156637
2071 1 0.193888 0.617738 0.117915
714 2 0.257178 0.684062 0.120121
713 2 0.232107 0.634825 0.146605
861 2 0.181434 0.797289 0.302391
860 2 0.205341 0.744074 0.276162
892 1 0.326284 0.835453 0.305547
893 2 0.307481 0.834342 0.28229
894 2 0.32382 0.866517 0.350051
197 2 0.177171 0.865356 0.0909469
1040 2 0.203955 0.539803 0.312097
1090 1 0.257975 0.754707 0.0377096
198 2 0.173997 0.827261 0.168099
456 2 0.212501 0.95743 0.0682894
850 1 0.256312 0.638446 0.310412
454 1 0.213194 0.917256 0.0312705
851 2 0.247957 0.588682 0.305095
122 2 0.326226 0.731388 0.0457608
123 2 0.297183 0.771193 0.0531413
852 2 0.26164 0.652746 0.259552
121 1 0.317499 0.778141 0.0623413
859 1 0.188234 0.769736 0.258704
1039 1 0.222218 0.513805 0.309949
718 1 0.250818 0.782561 0.348886
1041 2 0.226475 0.501382 0.361987
720 2 0.257333 0.817829 0.310803
719 2 0.254245 0.733298 0.326987
261 2 0.264414 0.64779 0.450872
1097 2 0.309938 0.515234 0.29068
1096 1 0.313651 0.557066 0.324479
977 2 0.321077 0.988196 0.124418
1098 2 0.295132 0.580963 0.331138
871 1 0.220354 0.511804 0.472759
404 2 0.26118 0.885074 0.491281
1092 2 0.249912 0.805029 0.0400555
403 1 0.260809 0.830424 0.491299
405 2 0.256662 0.816895 0.439476
288 2 0.193195 0.633447 0.0273
210 2 0.315604 0.701067 0.467622
635 2 0.268322 0.994847 0.102903
768 2 0.172219 0.895944 0.396654
872 2 0.24071 0.502061 0.477918
2077 1 0.327049 0.929774 0.432143
260 2 0.27158 0.716511 0.499817
259 1 0.278994 0.667881 0.484244
2078 2 0.310117 0.955226 0.451036
1026 2 0.298748 0.512952 0.489583
634 1 0.282183 0.959688 0.0823441
636 2 0.282418 0.970367 0.0287419
842 2 0.427962 0.997881 0.28774
841 1 0.409002 0.976214 0.282108
1081 1 0.496564 0.607682 0.202615
366 2 0.35849 0.550894 0.408093
364 1 0.364741 0.537137 0.458373
365 2 0.384813 0.524248 0.452483
1083 2 0.478119 0.60144 0.227014
17 3 0.441117 0.54194 0.392479
2079 2 0.33597 0.966161 0.39878
976 1 0.340304 0.993323 0.144526
209 2 0.346514 0.717131 0.442985
771 2 0.442581 0.657389 0.0777411
1374 2 0.386339 0.906377 0.221256
19 5 0.429818 0.563489 0.341048
769 1 0.460553 0.657375 0.0502879
1847 2 0.473939 0.856916 0.06062
770 2 0.468135 0.70778 0.0573078
978 2 0.349623 0.946046 0.132203
463 1 0.477476 0.825146 0.495175
1645 1 0.437639 0.715192 0.24244
1373 2 0.358631 0.861274 0.232603
1647 2 0.418295 0.701103 0.256612
1646 2 0.436023 0.731355 0.190398
389 2 0.340061 0.605272 0.0173528
390 2 0.36967 0.639567 0.0020805
797 2 0.379782 0.661011 0.346414
796 1 0.377589 0.613493 0.320026
798 2 0.359465 0.618144 0.293683
513 2 0.390326 0.797093 0.133951
759 2 0.358947 0.790087 0.347548
1372 1 0.373619 0.871244 0.196074
15 5 0.415648 0.652819 0.418757
18 5 0.465404 0.551088 0.385203
511 1 0.399934 0.767509 0.0955589
512 2 0.38785 0.72352 0.0890297
1771 1 0.477894 0.831755 0.26542
1772 2 0.467283 0.785254 0.27223
1773 2 0.467599 0.858353 0.226087
757 1 0.375509 0.768453 0.372491
758 2 0.386707 0.811617 0.388529
1731 2 0.420627 0.891144 0.354736
1730 2 0.434054 0.860594 0.42749
1729 1 0.41681 0.884069 0.407997
16 4 0.432825 0.55908 0.450883
13 3 0.431376 0.625969 0.460839
14 5 0.453037 0.658341 0.460896
986 2 0.48223 0.991159 0.219956
208 1 0.334001 0.717975 0.486618
1846 1 0.461275 0.828026 0.0929274
388 1 0.350752 0.652002 0.0209912
1848 2 0.442962 0.82873 0.0670912
341 2 0.380576 0.506057 0.114359
340 1 0.394634 0.543568 0.0997417
1062 2 0.4926 0.594291 0.038859
342 2 0.396084 0.538616 0.0454412
1082 2 0.493891 0.586797 0.152595
149 2 0.345336 0.851948 0.0159151
263 2 0.473424 0.547523 0.49261
1745 2 0.0234245 0.408208 0.996403
1746 2 0.045377 0.364138 0.949522
607 1 0.117374 0.1269 0.980249
1453 1 0.0222584 0.0995034 0.511652
2051 2 0.146353 0.293977 0.588514
2050 1 0.159999 0.254639 0.576179
2106 2 0.0487724 0.25499 0.652037
2104 1 0.0377283 0.2905 0.622321
2105 2 0.0507506 0.306606 0.582885
1781 2 0.112966 0.34845 0.636936
1780 1 0.119289 0.353105 0.688795
601 1 0.141524 0.190833 0.846011
602 2 0.14943 0.241366 0.844692
1712 2 0.0951041 0.405253 0.540531
815 2 0.0278804 0.058087 0.847288
1782 2 0.117702 0.302536 0.709117
814 1 0.0236399 0.0976305 0.883338
1180 1 0.0490337 0.474202 0.738293
1334 2 0.0714396 0.159457 0.773583
1333 1 0.0748881 0.209217 0.752862
1335 2 0.0820276 0.238425 0.795075
603 2 0.145352 0.17057 0.796254
882 2 0.0988107 0.318301 0.895421
880 1 0.0862642 0.324166 0.852242
881 2 0.0882231 0.37671 0.838094
1711 1 0.0974457 0.35117 0.545499
2027 2 0.0933159 0.0368431 0.648153
2021 2 0.0556123 0.276333 0.892802
2022 2 0.0237986 0.261888 0.876553
2020 1 0.0386368 0.252729 0.913712
249 2 0.160389 0.417285 0.684001
2026 1 0.11305 0.0201607 0.652108
1181 2 0.0426471 0.423248 0.748742
1978 1 0.0552272 0.0576999 0.649444
1979 2 0.04334 0.0689172 0.606034
1980 2 0.0418556 0.0543077 0.69115
816 2 0.0410013 0.127609 0.885358
1744 1 0.0438243 0.403765 0.986946
608 2 0.125228 0.149271 0.934856
494 2 0.155862 0.162812 0.640966
493 1 0.154939 0.133099 0.686779
495 2 0.136878 0.106291 0.683225
727 1 0.164012 0.442641 0.502103
728 2 0.166045 0.441673 0.556492
1944 2 0.0456418 0.499574 0.946041
654 2 0.124704 0.00858035 0.955331
507 2 0.00353368 0.425545 0.583572
849 2 0.109553 0.43454 0.758806
848 2 0.0914982 0.49655 0.795866
847 1 0.107586 0.46319 0.805066
506 2 0.0237928 0.469315 0.635712
203 2 0.158443 0.497519 0.932957
202 1 0.140835 0.471811 0.946448
204 2 0.129022 0.475104 0.901598
505 1 0.020518 0.457043 0.583149
1124 2 0.00315358 0.106097 0.992381
497 2 0.181357 0.382192 0.97444
2052 2 0.176961 0.281505 0.559568
835 1 0.191686 0.116165 0.993195
955 1 0.262518 0.469878 0.924998
743 2 0.254007 0.271402 0.996063
1810 1 0.175357 0.329946 0.814248
1812 2 0.172742 0.37808 0.839217
1811 2 0.190239 0.33918 0.777227
837 2 0.197242 0.141704 0.947131
957 2 0.278327 0.494285 0.899249
956 2 0.26452 0.416947 0.91242
1959 2 0.216692 0.499949 0.902951
248 2 0.191882 0.398152 0.668275
247 1 0.176787 0.433045 0.654345
962 2 0.237309 0.346964 0.734242
1585 1 0.213262 0.196841 0.861005
963 2 0.222236 0.280665 0.695432
1586 2 0.209695 0.152749 0.830093
961 1 0.21885 0.330967 0.714876
1987 1 0.256881 0.318865 0.875407
1988 2 0.27003 0.31063 0.833887
218 2 0.291078 0.1044 0.723754
1989 2 0.243926 0.276164 0.873539
540 2 0.304439 0.488968 0.651413
562 1 0.288663 0.324442 0.738012
564 2 0.289446 0.377053 0.723334
538 1 0.284775 0.480252 0.666808
219 2 0.312415 0.0847997 0.786525
217 1 0.292429 0.0797503 0.77241
178 1 0.251485 0.202118 0.635617
180 2 0.270864 0.218995 0.625364
179 2 0.241464 0.208486 0.588155
703 1 0.332804 0.253861 0.844623
705 2 0.327813 0.275846 0.892914
593 2 0.317719 0.257072 0.575171
922 1 0.238135 0.0248703 0.650037
592 1 0.298063 0.265581 0.590751
704 2 0.321927 0.282827 0.80815
594 2 0.289013 0.288623 0.547273
1587 2 0.197209 0.230005 0.850745
319 1 0.330278 0.0997634 0.622533
563 2 0.2907 0.296907 0.691101
1926 2 0.26619 0.139105 0.875708
1925 2 0.28659 0.0970107 0.92884
2137 1 0.32079 0.323524 0.98319
1924 1 0.27034 0.131086 0.928663
647 2 0.211506 0.0564108 0.738066
646 1 0.198334 0.0721415 0.777311
648 2 0.182905 0.0971435 0.750556
1927 1 0.325738 0.063433 0.980343
690 2 0.169129 0.00904258 0.631705
306 2 0.324397 0.496456 0.913581
2058 2 0.297293 0.499801 0.759493
924 2 0.218291 0.0228591 0.633918
923 2 0.243583 0.0772216 0.643583
279 2 0.259515 0.0156224 0.911009
307 1 0.420667 0.328667 0.91196
308 2 0.424868 0.379508 0.928716
684 2 0.394458 0.128572 0.516748
309 2 0.437077 0.299247 0.928067
1581 2 0.484666 0.386682 0.822771
1267 1 0.46457 0.224943 0.974647
26 5 0.435372 0.458185 0.531147
1580 2 0.483159 0.436235 0.752046
683 2 0.382954 0.0478941 0.509745
2157 2 0.492129 0.240254 0.869856
442 1 0.489191 0.0378837 0.649486
2155 1 0.48936 0.271422 0.825549
1032 2 0.392074 0.0153839 0.66056
558 2 0.462402 0.0631378 0.51972
1166 2 0.493555 0.0283678 0.826709
305 2 0.334513 0.456553 0.985506
321 2 0.336748 0.142119 0.592465
320 2 0.347279 0.0829954 0.649128
2118 2 0.364756 0.100369 0.773331
1579 1 0.483736 0.438843 0.806622
1919 2 0.46442 0.229843 0.782506
2117 2 0.344787 0.151989 0.818616
1920 2 0.43178 0.237524 0.775777
1918 1 0.447812 0.207254 0.758643
318 2 0.458618 0.478194 0.8737
2116 1 0.349246 0.0993519 0.809699
29 5 0.462731 0.295352 0.510328
806 2 0.389557 0.225902 0.588182
27 3 0.461295 0.352495 0.539562
28 5 0.449962 0.33478 0.593173
30 4 0.481777 0.388356 0.56146
967 1 0.396611 0.441458 0.691824
969 2 0.40555 0.394706 0.70761
1873 1 0.429639 0.164126 0.611445
807 2 0.374628 0.289436 0.544648
316 1 0.45082 0.491323 0.922636
805 1 0.372238 0.237431 0.560256
875 2 0.371314 0.284407 0.781619
874 1 0.39174 0.292897 0.776185
876 2 0.397575 0.314597 0.823948
790 1 0.37604 0.388711 0.558746
792 2 0.381379 0.408327 0.607793
314 2 0.369997 0.499233 0.744141
791 2 0.366869 0.430794 0.533548
968 2 0.412314 0.471857 0.672902
1874 2 0.438811 0.185428 0.655627
1929 2 0.338744 0.091187 0.94798
1875 2 0.443793 0.16916 0.57174
264 2 0.493337 0.496046 0.538227
266 2 0.453922 0.110345 0.783158
1269 2 0.484059 0.218173 0.992385
1268 2 0.456568 0.174503 0.97398
1031 2 0.405228 0.0932633 0.675097
617 2 0.476508 0.423837 0.987755
125 2 0.432307 0.0503573 0.972562
443 2 0.478431 0.0522419 0.693992
1622 2 0.487067 0.121896 0.601312
1621 1 0.488925 0.151478 0.555611
1928 2 0.33602 0.0175793 0.992745
265 1 0.460352 0.0585292 0.787252
267 2 0.443863 0.0314467 0.806578
1030 1 0.389733 0.0604364 0.690892
33 5 0.496056 0.304732 0.624148
131 2 0.107491 0.986894 0.537193
854 2 0.0498816 0.587819 0.601428
580 1 0.0226555 0.730581 0.835582
1809 2 0.0271478 0.962186 0.736299
582 2 0.0118684 0.684871 0.825918
1005 2 0.119597 0.757769 0.591803
1003 1 0.115927 0.735267 0.542934
280 1 0.0177154 0.721428 0.500345
1943 2 0.0227905 0.561687 0.947882
1009 1 0.0852642 0.520902 0.515371
1182 2 0.0324805 0.505457 0.749039
2028 2 0.113521 0.989906 0.697613
1010 2 0.0928055 0.539912 0.562624
2121 2 0.164468 0.937332 0.911164
855 2 0.0413637 0.662953 0.565009
581 2 0.0412156 0.721505 0.812722
653 2 0.116605 0.941539 0.905079
652 1 0.126428 0.954241 0.951544
1349 2 0.063067 0.906876 0.976452
1350 2 0.0318894 0.932406 0.966547
1904 2 0.0480163 0.799488 0.540901
1903 1 0.0618701 0.839291 0.532194
1348 1 0.0514517 0.950825 0.965363
657 2 0.0730414 0.682896 0.96882
853 1 0.0540794 0.641342 0.602455
1807 1 0.0147568 0.993323 0.76722
692 2 0.111877 0.602216 0.701089
655 1 0.0823781 0.636513 0.953547
656 2 0.0667453 0.602491 0.941727
633 2 0.0742855 0.957158 0.864006
632 2 0.0818384 0.923769 0.786779
631 1 0.0903364 0.947499 0.830654
2110 1 0.120525 0.664576 0.808617
2112 2 0.134638 0.704044 0.81584
2111 2 0.112444 0.656488 0.858322
691 1 0.103462 0.579405 0.65662
693 2 0.0891682 0.615437 0.640001
1103 2 0.0602954 0.824207 0.714752
999 2 0.0657385 0.693666 0.697886
997 1 0.0690969 0.722421 0.743524
998 2 0.0866459 0.701606 0.764119
1102 1 0.0639279 0.875623 0.698853
1104 2 0.0660563 0.872369 0.644579
1004 2 0.0987714 0.76035 0.524968
833 2 0.130022 0.849716 0.713636
834 2 0.154501 0.798086 0.687888
832 1 0.140831 0.834862 0.669378
245 2 0.155613 0.789614 0.558833
1942 1 0.0406136 0.547603 0.923549
903 2 0.19503 0.988402 0.517605
1091 2 0.255251 0.739223 0.985781
455 2 0.201159 0.934888 0.990344
286 1 0.188321 0.636304 0.974242
1958 2 0.192699 0.557462 0.916505
1957 1 0.196599 0.50937 0.89264
2120 2 0.181391 0.955555 0.839327
278 2 0.245726 0.957866 0.964135
539 2 0.273666 0.516001 0.637551
246 2 0.185591 0.815535 0.583032
878 2 0.21027 0.832572 0.881964
877 1 0.206569 0.779722 0.891952
471 2 0.188246 0.75338 0.797981
469 1 0.175302 0.741983 0.756762
244 1 0.174141 0.804227 0.53884
689 2 0.168161 0.923365 0.642939
470 2 0.182755 0.695743 0.735189
2048 2 0.242965 0.773509 0.664513
2049 2 0.240169 0.801895 0.583189
846 2 0.194027 0.541195 0.709829
873 2 0.217112 0.55726 0.50189
2119 1 0.183721 0.937568 0.890577
277 1 0.26114 0.963835 0.927962
845 2 0.190093 0.563391 0.792736
844 1 0.194326 0.584272 0.743465
1369 1 0.265247 0.930022 0.768257
1370 2 0.266997 0.97573 0.738638
2056 1 0.307164 0.502246 0.807532
1493 2 0.293355 0.904736 0.903928
1492 1 0.308628 0.872373 0.885849
2047 1 0.231541 0.767634 0.61923
287 2 0.190877 0.688991 0.961337
1050 2 0.329449 0.611891 0.600596
879 2 0.225312 0.756161 0.89031
1494 2 0.31222 0.88947 0.834799
937 1 0.32263 0.70219 0.881124
938 2 0.323021 0.756359 0.888357
1371 2 0.264183 0.94744 0.819991
2057 2 0.326606 0.516732 0.794756
688 1 0.17862 0.96274 0.61685
920 2 0.283698 0.706917 0.878153
919 1 0.26303 0.709701 0.883181
921 2 0.256176 0.6619 0.863746
701 2 0.268992 0.603696 0.601153
700 1 0.250781 0.589454 0.623309
702 2 0.250036 0.616914 0.670529
645 2 0.231441 0.591509 0.787915
1995 2 0.202704 0.70727 0.518701
1993 1 0.214232 0.662549 0.51043
644 2 0.257331 0.541098 0.770725
643 1 0.252183 0.592216 0.784551
1994 2 0.22975 0.66679 0.546539
886 1 0.330303 0.700234 0.664463
152 2 0.269041 0.731123 0.769906
151 1 0.276841 0.75823 0.727103
153 2 0.275798 0.810856 0.741616
906 2 0.329496 0.917717 0.64214
905 2 0.318073 0.979633 0.694457
887 2 0.311895 0.725295 0.668424
304 1 0.336519 0.503175 0.957468
1562 2 0.482385 0.809595 0.674509
811 1 0.36545 0.760546 0.787568
2 5 0.46597 0.617678 0.689758
1931 2 0.402804 0.825058 0.984863
813 2 0.383961 0.739931 0.801444
1930 1 0.405703 0.830974 0.931062
1932 2 0.387724 0.851312 0.912675
1951 1 0.466209 0.901993 0.636302
5 7 0.465337 0.541184 0.631316
1953 2 0.478436 0.944643 0.647904
4 6 0.450464 0.526934 0.667734
818 2 0.371568 0.943778 0.762586
1793 2 0.388073 0.888261 0.582334
1048 1 0.333479 0.558358 0.603681
1049 2 0.346732 0.548902 0.562652
1952 2 0.448401 0.924393 0.619205
830 2 0.472271 0.741554 0.87179
136 1 0.430002 0.967196 0.885998
317 2 0.431043 0.504745 0.912543
380 2 0.376576 0.556434 0.936115
262 1 0.487946 0.54843 0.531702
381 2 0.401934 0.601593 0.904715
984 2 0.434523 0.690639 0.839247
939 2 0.335143 0.682534 0.920088
904 1 0.333612 0.943755 0.688964
378 2 0.349427 0.874199 0.530854
150 2 0.341939 0.883553 0.935948
1561 1 0.489812 0.758706 0.678561
138 2 0.43361 0.914989 0.899114
464 2 0.472332 0.846349 0.543703
1563 2 0.485553 0.743778 0.729936
11 5 0.394863 0.629944 0.540647
465 2 0.482617 0.773335 0.506146
7 5 0.404073 0.608114 0.66026
10 3 0.418156 0.649228 0.540127
8 5 0.424882 0.69132 0.679821
315 2 0.353634 0.569442 0.717834
313 1 0.359526 0.542584 0.762847
3 5 0.438507 0.579347 0.755623
819 2 0.379489 0.866448 0.795134
376 1 0.350161 0.839804 0.573292
377 2 0.346155 0.790731 0.55165
829 1 0.471956 0.704129 0.831962
137 2 0.410825 0.967083 0.864926
982 1 0.414515 0.691847 0.853982
1794 2 0.407155 0.932176 0.527322
9 4 0.434326 0.628296 0.585648
831 2 0.486141 0.667164 0.847113
6 3 0.426039 0.631612 0.648836
148 1 0.353145 0.889234 0.981629
812 2 0.351717 0.730076 0.815039
817 1 0.38311 0.91992 0.801277
888 2 0.343097 0.730503 0.69511
1 3 0.445678 0.583926 0.695902
379 1 0.396832 0.565889 0.943865
12 5 0.419483 0.714053 0.53698
983 2 0.412609 0.737806 0.883141
1792 1 0.404277 0.922443 0.580572
1340 2 0.499054 0.645187 0.534741
1906 1 0.498651 0.892803 0.966859
531 2 0.586326 0.400541 0.0521643
1738 1 0.599135 0.263852 0.275749
1740 2 0.599364 0.236403 0.323012
1739 2 0.608061 0.311806 0.287453
1698 2 0.55814 0.311833 0.127967
1326 2 0.58624 0.0224478 0.00845151
66 7 0.554959 0.477486 0.45812
1851 2 0.543486 0.291063 0.405091
1997 2 0.595747 0.0789576 0.324981
947 2 0.53191 0.209684 0.0581223
1324 1 0.590819 0.0606679 0.0456243
946 1 0.525585 0.209213 0.00605832
1998 2 0.586521 0.0942943 0.406525
1996 1 0.603318 0.0904751 0.374564
1696 1 0.539683 0.336267 0.122122
1325 2 0.572477 0.0828667 0.0585784
1006 1 0.561556 0.185265 0.154387
1549 1 0.660387 0.366541 0.00983033
1669 1 0.639647 0.133842 0.157581
1550 2 0.643688 0.361745 0.0420128
721 1 0.639852 0.368047 0.334016
1671 2 0.621091 0.145299 0.135791
1007 2 0.57495 0.213597 0.185113
432 2 0.528997 0.0967509 0.451255
386 2 0.515613 0.383518 0.351808
1850 2 0.574421 0.292346 0.434287
1849 1 0.558786 0.25836 0.422382
1670 2 0.64101 0.166629 0.201167
722 2 0.647986 0.414309 0.353759
723 2 0.656306 0.338399 0.318656
529 1 0.602952 0.386444 0.0817764
65 6 0.548332 0.475711 0.40499
2129 2 0.64601 0.0221821 0.446603
1534 1 0.571344 0.0586584 0.244472
1536 2 0.574934 0.00687849 0.229731
108 2 0.517019 0.0972211 0.0326771
1715 2 0.650899 0.0685441 0.343463
1008 2 0.558514 0.138794 0.182028
1923 2 0.664626 0.0647295 0.112933
1697 2 0.541607 0.38346 0.14923
1535 2 0.552974 0.0570516 0.269985
530 2 0.604497 0.425591 0.119706
106 1 0.521217 0.0541711 0.0644956
64 5 0.582719 0.458029 0.346945
2098 1 0.521535 0.0411011 0.346611
1871 2 0.655919 0.474876 0.0190815
2099 2 0.502165 0.0473977 0.327829
1735 1 0.536642 0.483224 0.17797
107 2 0.505112 0.0513586 0.0989289
1452 2 0.615459 0.354413 0.42497
1450 1 0.59998 0.351656 0.461339
1451 2 0.599074 0.401755 0.483065
431 2 0.548951 0.165379 0.454335
430 1 0.544747 0.118247 0.479712
385 1 0.505832 0.344486 0.380136
618 2 0.501654 0.375476 0.0153346
1551 2 0.676374 0.370533 0.0445282
2007 2 0.708405 0.242854 0.318296
2005 1 0.690773 0.269508 0.32956
1714 1 0.671182 0.0593372 0.351028
1922 2 0.694023 0.0430468 0.0809098
1613 2 0.702624 0.209967 0.459842
1716 2 0.676942 0.0963576 0.388279
1653 2 0.752773 0.190376 0.126237
1879 1 0.817813 0.344598 0.274031
1612 1 0.688693 0.16941 0.459342
2006 2 0.679956 0.234889 0.360861
1378 1 0.731154 0.420626 0.399281
1379 2 0.73479 0.382601 0.437364
1651 1 0.74247 0.202992 0.171999
1652 2 0.734179 0.155665 0.188504
1139 2 0.699049 0.070906 0.268049
1140 2 0.714546 0.0137961 0.217547
94 1 0.830864 0.0287072 0.175285
96 2 0.810591 0.0182945 0.181316
2054 2 0.748802 0.291822 0.24049
1138 1 0.713718 0.0670834 0.229519
2055 2 0.777252 0.32956 0.261719
1785 2 0.818601 0.397986 0.451747
1783 1 0.80239 0.372057 0.429444
2053 1 0.756983 0.329444 0.273796
1784 2 0.805166 0.319586 0.442903
2094 2 0.706448 0.431362 0.16231
2093 2 0.700466 0.347681 0.147364
2092 1 0.706395 0.393831 0.122572
1880 2 0.810304 0.350105 0.3247
1921 1 0.67464 0.0243502 0.0871748
613 1 0.805591 0.212574 0.426005
614 2 0.81559 0.172346 0.399969
615 2 0.78772 0.189925 0.442298
2127 2 0.761168 0.0969396 0.306803
2126 2 0.76362 0.173345 0.266879
2125 1 0.761595 0.150745 0.316361
1888 1 0.753069 0.459309 0.0176912
1889 2 0.738445 0.445024 0.0538081
1890 2 0.76494 0.414738 0.012569
1762 1 0.831191 0.41368 0.119639
1881 2 0.825285 0.293618 0.272447
1764 2 0.818486 0.393483 0.157891
1786 1 0.677557 0.496258 0.374315
1788 2 0.690807 0.455587 0.385229
1380 2 0.737247 0.397447 0.352445
1748 2 0.75425 0.109463 0.454302
1400 2 0.782854 0.111625 0.0630893
1399 1 0.784359 0.165889 0.0683228
1401 2 0.798524 0.180564 0.0311161
1982 2 0.761956 0.42475 0.210028
1981 1 0.773465 0.463682 0.186454
1983 2 0.773608 0.45051 0.133408
1596 2 0.826873 0.485432 0.311782
1763 2 0.827885 0.467627 0.120945
1028 2 0.755283 0.0121748 0.0736078
1027 1 0.77138 0.0123457 0.108181
1747 1 0.752837 0.146107 0.494688
1990 1 0.796285 0.366115 0.00914061
1991 2 0.812061 0.388415 0.0368718
975 2 0.852966 0.0380367 0.359506
95 2 0.834795 0.0685406 0.211258
973 1 0.848316 0.0874458 0.379425
974 2 0.844887 0.0789141 0.432655
1014 2 0.854843 0.190651 0.229346
1013 2 0.845723 0.154338 0.304042
1012 1 0.838338 0.182818 0.261625
914 2 0.934062 0.367161 0.279111
913 1 0.914919 0.349657 0.291217
2085 2 0.88378 0.0090315 0.274457
1603 1 0.962602 0.0204972 0.391747
1604 2 0.975011 0.0201048 0.435592
1290 2 0.9212 0.304102 0.383494
1288 1 0.926936 0.298274 0.435706
1289 2 0.920107 0.34366 0.460307
2037 2 0.962478 0.0850591 0.303085
2008 1 0.960317 0.359607 0.108254
2009 2 0.953025 0.410432 0.114309
1463 2 0.977367 0.415844 0.371294
1462 1 0.977092 0.391079 0.322573
1071 2 0.960796 0.231342 0.379492
1464 2 0.977805 0.337724 0.334292
915 2 0.902504 0.391293 0.277507
926 2 0.909719 0.126186 0.193367
927 2 0.906594 0.0460613 0.16197
925 1 0.906103 0.0745598 0.208594
1433 2 0.970944 0.469159 0.230277
1069 1 0.977788 0.232189 0.348032
1123 1 0.990432 0.113848 0.0349036
1042 1 0.849415 0.453778 0.487607
2035 1 0.961901 0.109079 0.25401
71 2 0.96461 0.339362 0.0161355
145 1 0.914753 0.232144 0.174936
147 2 0.908419 0.280142 0.195091
146 2 0.934595 0.240509 0.160983
2036 2 0.94525 0.087418 0.229499
1884 2 0.903325 0.48855 0.213125
2059 1 0.880352 0.470972 0.352392
2061 2 0.870383 0.463004 0.399686
2060 2 0.897637 0.497947 0.366301
1883 2 0.928524 0.497805 0.158391
1882 1 0.908935 0.479763 0.161233
1070 2 0.975264 0.19021 0.313662
1125 2 0.978371 0.0693421 0.0356719
949 1 0.967342 0.453542 0.476944
951 2 0.986216 0.473768 0.466252
1148 2 0.859261 0.0696427 0.0139359
1147 1 0.842409 0.0377597 0.0165592
750 2 0.875081 0.24035 0.00218386
1963 1 0.884508 0.371159 0.0469521
1964 2 0.86713 0.368673 0.0768266
1965 2 0.895171 0.412957 0.0682618
1149 2 0.835904 0.0423025 0.0682727
2076 2 0.992481 0.103448 0.212233
2010 2 0.979924 0.36219 0.126193
2068 1 0.636983 0.525965 0.159502
2069 2 0.656878 0.534676 0.172697
2070 2 0.635521 0.542007 0.107392
908 2 0.594107 0.888789 0.141614
2102 2 0.645677 0.901444 0.0475711
2159 2 0.515007 0.681986 0.262621
1057 1 0.526545 0.88007 0.386801
1737 2 0.521936 0.518754 0.193115
62 3 0.56934 0.502328 0.372864
63 5 0.564028 0.543152 0.328296
1631 2 0.548046 0.687691 0.0634136
59 3 0.586931 0.545753 0.433227
1220 2 0.555734 0.839972 0.171075
1219 1 0.536532 0.834811 0.150813
1221 2 0.526185 0.806542 0.188866
61 5 0.608237 0.561484 0.398886
1630 1 0.549627 0.734462 0.0354344
1430 2 0.57361 0.680523 0.231411
1429 1 0.586652 0.673123 0.273319
1431 2 0.574633 0.654289 0.313739