ITEM: TIMESTEP
0
ITEM: NUMBER OF ATOMS
768
ITEM: BOX BOUNDS pp pp pp
-2.1800000000000001e-03 1.9997820000000001e+01
-3.1025000000000000e-02 1.9968975000000000e+01
-8.3070000000000001e-03 1.9991693000000001e+01
ITEM: ATOMS id mol type xu yu zu vx vy vz 
1 1 2 5.27894 7.74798 4.52539 -0.00282752 0.00214445 0.0019524 
2 1 1 5.66935 8.34064 5.26691 0.00731122 -0.00155338 0.00305957 
3 1 1 5.34939 6.78222 4.86606 0.0141137 0.0114317 -0.0071963 
4 2 2 3.29106 13.8341 2.46864 0.00296648 -0.00823062 0.00379418 
5 2 1 3.78103 14.137 3.3131 -0.0122911 0.00317313 0.0131523 
6 2 1 3.28903 12.8129 2.46067 -0.0302131 -0.00941369 0.0278533 
7 3 2 0.949736 16.4906 20.1673 -0.00154448 -0.000399955 -0.00592458 
8 3 1 0.304537 15.7356 20.4063 -0.00290364 0.0115001 0.0202083 
9 3 1 0.959787 16.4976 19.1429 -0.00757588 -0.0118185 0.0102052 
10 4 2 2.67307 12.6379 14.2996 0.00128423 0.00180997 0.000589154 
11 4 1 3.29804 11.9235 13.9147 -0.00804318 0.0105888 0.0140317 
12 4 1 2.31504 13.1549 13.4967 -0.00547221 0.00179416 0.00762349 
13 5 2 9.73145 18.7021 3.12234 0.00455841 -0.0043964 -0.000465984 
14 5 1 10.3418 18.7362 2.30952 0.0189514 -0.0268562 -0.0316713 
15 5 1 8.95487 19.3314 2.88805 -0.0128169 0.010509 -0.0152639 
16 6 2 11.0246 16.6778 -0.243963 -0.00250433 0.00207434 0.00145243 
17 6 1 10.0708 16.3191 -0.149817 -0.0160881 0.00896775 0.0261557 
18 6 1 11.6112 15.8411 -0.27856 -0.0172035 -0.00246112 0.00520869 
19 7 2 13.832 2.88347 12.1285 0.00218447 0.000132227 0.00162309 
20 7 1 12.9776 2.52067 12.5576 -0.00289458 0.0058165 0.00340438 
21 7 1 13.773 3.89136 12.2796 0.0165689 -0.010472 -0.00509908 
22 8 2 16.2696 16.638 11.5153 -0.00148692 0.00515155 0.000950427 
23 8 1 16.3924 17.6198 11.7854 -9.70557e-05 -0.0170973 -0.00873471 
24 8 1 17.228 16.2773 11.4603 0.00630924 -0.0104649 -0.0106916 
25 9 2 3.90511 19.0254 3.81242 0.00321525 0.00355481 0.00522088 
26 9 1 2.9407 18.8681 4.09134 0.0159135 -0.00674952 0.00428342 
27 9 1 4.32374 19.5568 4.58053 -0.00380484 0.0282094 0.00767825 
28 10 2 18.6089 10.5809 4.57717 -0.0024956 -0.00200025 -0.00250237 
29 10 1 18.7588 9.67855 5.0401 0.000811086 0.0143633 -0.0168946 
30 10 1 18.9053 10.459 3.60177 -0.0041662 -0.00528263 -0.00647344 
31 11 2 15.9482 19.522 16.7617 -0.00141749 -0.00296818 0.0077852 
32 11 1 16.8908 19.7419 16.4287 -0.0148531 -0.00362307 -0.0204061 
33 11 1 16.0352 19.6209 17.7755 0.00101805 -0.015564 0.0201932 
34 12 2 9.56859 8.06686 5.22629 0.00401244 0.00278727 -0.00342792 
35 12 1 9.81428 7.07613 5.11609 -0.0101552 -0.0168229 0.0273641 
36 12 1 8.96374 8.25843 4.42433 -0.0131542 -0.0056561 -0.0200914 
37 13 2 10.2485 11.9006 5.03008 0.00734169 -0.00626581 -0.00495323 
38 13 1 10.7184 12.813 5.09389 -0.0157634 0.00663657 0.000148915 
39 13 1 10.2222 11.6832 4.0282 0.015789 0.00474186 0.000228994 
40 14 2 2.40455 6.90148 8.05851 -0.00713092 0.00347032 0.00129627 
41 14 1 3.38388 6.76184 7.83003 -0.00465251 -0.0241156 -0.012526 
42 14 1 1.87569 6.10582 7.70676 -0.0120069 0.0221216 -0.0170603 
43 15 2 14.103 1.54519 16.6395 0.00222279 0.00113474 -0.000673479 
44 15 1 14.7606 2.20383 16.2397 -0.0157246 -0.00656692 0.00275573 
45 15 1 14.6044 0.651891 16.6098 0.00430977 -0.00985948 0.0110768 
46 16 2 15.1564 18.2478 2.56329 0.00649837 -0.00454478 0.00388236 
47 16 1 14.7831 18.8458 1.82035 0.016898 0.0239987 0.0236018 
48 16 1 14.5676 18.4156 3.38253 0.0122047 0.00558065 0.0132051 
49 17 2 19.5418 14.1992 20.6211 -0.00385029 -0.00316606 0.000698569 
50 17 1 18.8034 13.5608 20.3691 0.00342244 0.0059288 -0.00683398 
51 17 1 20.386 13.8313 20.1691 0.00446948 0.00150384 0.0137899 
52 18 2 14.1403 1.619 3.98986 0.00478312 -0.00608824 -0.000146435 
53 18 1 13.4527 1.57347 3.22132 -0.0136316 0.0242065 0.0522081 
54 18 1 13.7489 2.32855 4.62356 -0.000913436 -0.0233817 0.00558378 
55 19 2 13.1886 4.50004 19.4149 -0.00549247 -0.00227421 -0.00290446 
56 19 1 13.9403 5.07217 19.013 -0.00957703 0.0212115 0.011892 
57 19 1 12.9205 4.98768 20.2768 -0.025664 0.00233608 -0.00484984 
58 20 2 8.80756 3.00958 3.11489 0.000576141 -0.00847197 0.000799859 
59 20 1 9.28965 3.72058 2.5612 -0.0227325 0.0182785 -0.00807454 
60 20 1 9.39755 2.84246 3.93116 0.0117857 0.0241757 -0.00574672 
61 21 2 15.3841 10.2626 2.06335 -0.00141174 -0.000177191 0.00560772 
62 21 1 15.9488 10.8868 2.6371 0.0128588 -0.0162857 0.030202 
63 21 1 14.4345 10.4838 2.35003 0.00181202 -0.0110035 -0.022467 
64 22 2 20.8558 7.02365 4.09418 -0.000345476 8.26519e-05 -0.000546996 
65 22 1 21.3787 6.32494 3.56193 0.0138988 -0.0247308 -0.00949114 
66 22 1 19.9221 6.99999 3.67811 0.0254036 -0.00412947 -0.00805449 
67 23 2 13.4404 5.47623 13.0448 -0.00711877 0.00883983 -0.00323709 
68 23 1 13.135 6.26448 12.4663 0.0134015 0.00971936 -0.0265949 
69 23 1 12.593 5.2522 13.5861 0.0193707 -0.00197697 0.0280866 
70 24 2 6.8647 -0.826959 9.54516 0.000829383 -0.00182519 -0.00550535 
71 24 1 6.4739 -1.67104 9.97665 0.0482533 -0.00647972 0.012819 
72 24 1 7.78901 -0.754168 9.98021 0.0117804 0.0112863 -0.00630753 
73 25 2 1.97665 5.33917 2.22094 -0.00197655 0.00395479 0.00758919 
74 25 1 1.28786 4.73661 1.75855 -0.000737548 -0.00095101 -0.0328381 
75 25 1 2.17523 6.09951 1.56356 -0.0127483 0.0150043 0.00248143 
76 26 2 3.49571 19.8136 1.15198 -0.00204246 0.00274089 -0.000720818 
77 26 1 3.71556 19.5918 2.12378 -0.0116823 -0.00646154 -0.00275687 
78 26 1 4.37634 20.1959 0.790346 0.00761661 -0.0123449 0.00101374 
79 27 2 18.7512 14.6107 6.47635 0.00026071 0.00331948 -0.00722395 
80 27 1 19.0664 13.6732 6.24235 0.0172989 0.00582834 0.00785643 
81 27 1 19.2055 15.2123 5.78427 0.00103698 -0.0169568 0.00808286 
82 28 2 8.25521 11.3255 14.9025 0.00137167 -0.00316169 0.00245463 
83 28 1 8.27869 10.2968 15.0149 -0.0133621 0.0016459 0.0124106 
84 28 1 7.32637 11.5989 15.2438 0.0024064 -0.00907668 -0.00548752 
85 29 2 11.2492 17.9293 14.7833 0.00269045 0.00349002 -0.00272693 
86 29 1 10.3883 18.4434 14.97 -0.0029881 0.0113783 -0.0185711 
87 29 1 11.6387 17.6654 15.6969 0.0237577 -0.00352124 0.00427513 
88 30 2 13.8093 19.0641 8.84053 0.00267448 -0.00422536 -0.00859306 
89 30 1 14.0848 18.1396 9.16536 0.01081 -0.00246001 -0.0265554 
90 30 1 14.394 19.202 8.01858 0.0166468 0.00314455 0.0124981 
91 31 2 14.3948 3.73476 7.96169 0.00125868 4.18419e-05 -0.00439193 
92 31 1 14.06 4.49889 8.55373 0.0132453 -0.0168527 0.0162413 
93 31 1 14.514 2.93834 8.59679 -0.00416471 -0.00174452 0.00370112 
94 32 2 5.30805 11.8298 5.64308 -0.00409287 -0.000725406 -0.000431661 
95 32 1 4.30121 11.8873 5.50908 -0.00424758 -0.0111972 -0.0292624 
96 32 1 5.61507 12.7123 6.05147 -0.0335341 -0.00449146 0.0167629 
97 33 2 19.0429 16.1659 15.4495 -0.0046184 -0.00739773 0.00235086 
98 33 1 19.5952 16.9511 15.0889 0.00891989 0.00782361 0.000529186 
99 33 1 18.0766 16.5182 15.5282 0.0145467 -0.0138693 0.0011272 
100 34 2 2.50887 19.1983 16.2709 0.00414818 -0.000304629 0.00222775 
101 34 1 3.46473 18.8795 16.4649 -0.0185317 -0.0207303 0.0263795 
102 34 1 2.25398 19.6994 17.1245 0.00606701 -0.0161014 -0.0018127 
103 35 2 0.733657 18.0127 14.5054 -0.000329808 0.000510316 -0.0024342 
104 35 1 1.30778 17.5353 13.8045 -0.0344098 0.000288163 -0.00822798 
105 35 1 1.37778 18.3855 15.2074 -0.00985883 -0.00353875 0.0236385 
106 36 2 12.3112 1.47129 2.06532 0.000408393 -0.00425366 0.00297551 
107 36 1 12.4849 1.89562 1.16601 -0.000852571 0.00408424 -0.00306252 
108 36 1 11.8259 0.600658 1.87273 0.0136951 -0.00360974 0.0274174 
109 37 2 11.4152 2.127 16.0481 0.00312697 -0.000763192 0.0025504 
110 37 1 11.3053 2.97624 16.6205 0.0010251 0.0311883 -0.00203887 
111 37 1 12.3572 1.79399 16.2557 -0.017534 0.00635273 0.00649998 
112 38 2 0.45772 0.827654 7.57686 0.000291748 -0.00348218 -0.00240004 
113 38 1 0.666301 1.68336 7.05178 -0.00232557 -0.00870951 -0.0192685 
114 38 1 -0.171629 0.305976 6.97058 -0.0128969 -0.0142374 -0.00532155 
115 39 2 6.60037 11.7177 0.967744 0.00748632 0.00273357 -0.000193625 
116 39 1 6.24988 12.343 0.236071 -0.0151705 0.0163999 0.00188956 
117 39 1 6.49712 10.7703 0.591929 -0.0180934 0.0217381 -0.00967425 
118 40 2 8.69777 4.90524 15.6392 -0.00804557 2.5427e-05 -0.00207759 
119 40 1 8.71534 5.3502 16.551 0.0279114 0.0258869 0.00890929 
120 40 1 8.14125 5.50206 15.0248 0.013487 -0.0221959 0.0158457 
121 41 2 12.4599 14.4722 19.0823 0.000780012 -0.00125124 0.00639101 
122 41 1 11.8322 14.2845 18.2922 -0.0159192 -0.0116816 0.00126487 
123 41 1 13.2575 14.9882 18.6979 0.000814651 -0.00894989 0.00649821 
124 42 2 16.9224 19.255 11.8533 0.00415218 0.000613101 0.00424719 
125 42 1 16.9948 19.3657 10.833 0.0115583 0.0281603 -0.00989233 
126 42 1 16.5135 20.1182 12.211 0.0270838 0.00341333 0.017471 
127 43 2 2.65249 4.07419 12.4203 -0.000126225 0.00152559 0.000307392 
128 43 1 2.02932 3.24815 12.4 -0.00793679 -0.0023414 -0.00981739 
129 43 1 3.51306 3.71881 11.9952 0.00504935 0.0243897 0.0115831 
130 44 2 9.27171 18.9627 17.5363 0.000643712 -0.00723571 -0.00143284 
131 44 1 9.26525 19.2773 16.5623 0.0166616 -0.00696769 0.0094666 
132 44 1 9.82768 19.639 18.0664 0.035368 -0.0012939 -0.0179227 
133 45 2 5.44222 7.33795 11.9471 -0.00493738 -0.00467615 -0.00189635 
134 45 1 5.4184 6.48698 11.3789 -0.0305022 0.0109692 -0.0119307 
135 45 1 4.48991 7.69047 12.007 -0.00360331 0.011592 -0.00681078 
136 46 2 18.0277 11.161 19.6071 0.00651877 -0.00659985 -0.00406104 
137 46 1 18.7439 10.851 18.9402 0.0140829 0.00145135 -0.0206717 
138 46 1 17.3009 10.4345 19.5627 -0.00628629 -0.00719605 0.00630942 
139 47 2 11.114 4.75961 14.1689 0.00378712 0.00185256 0.00144311 
140 47 1 10.2916 4.86392 14.7589 -0.015199 -0.00420529 -0.0211887 
141 47 1 11.1139 3.79562 13.8551 -0.0052452 0.00164788 -0.00823951 
142 48 2 6.93329 11.1237 12.4965 -0.00461133 -0.000358511 -0.00268205 
143 48 1 7.54578 11.3241 13.2868 -0.0139363 -0.00570554 -0.0172067 
144 48 1 6.87075 11.9861 11.9417 0.0265985 -0.0218001 -0.00892087 
145 49 2 0.475996 11.268 15.5053 0.00400311 0.00145134 -0.00129315 
146 49 1 0.537159 10.7369 14.6325 0.00326417 -0.00809486 -0.0259056 
147 49 1 1.25585 11.9115 15.4256 0.00949408 0.0180574 -0.0237263 
148 50 2 2.40999 15.1804 6.11713 0.00301947 -0.00459848 0.0019892 
149 50 1 2.41452 14.4326 6.80684 -0.00552195 0.00304991 -0.0155955 
150 50 1 3.24507 15.0577 5.53163 0.0131213 0.00187858 -0.00683771 
151 51 2 16.457 12.1004 3.79717 -0.00269205 -0.00473624 0.00660567 
152 51 1 17.2227 11.5839 4.23621 -0.0212618 0.0322902 0.0134197 
153 51 1 15.7174 12.1932 4.49805 -0.00189764 0.000892784 -0.00771903 
154 52 2 7.8674 20.48 2.32204 -0.00188823 -0.00177676 0.00209682 
155 52 1 8.14786 21.426 2.57654 -0.0064222 0.0128389 0.00786907 
156 52 1 7.11118 20.5623 1.64744 0.00787451 -0.0276582 -0.0165393 
157 53 2 1.26593 1.83542 12.3112 -0.000252322 0.000587637 -0.00325346 
158 53 1 0.721987 1.42359 11.5473 0.00177852 0.0179136 -0.0029032 
159 53 1 1.7448 1.06024 12.7648 -0.0152697 -0.0167657 -0.0121748 
160 54 2 18.8274 -0.280998 5.505 0.00156702 -0.000559774 0.000905872 
161 54 1 18.1435 0.474311 5.53638 0.0187156 -0.0234932 0.000864841 
162 54 1 18.3658 -1.00736 4.95157 -0.00120515 -0.0160682 0.0154444 
163 55 2 8.83298 10.258 6.66879 -0.0041828 -0.00250321 0.00397788 
164 55 1 9.16653 10.9752 6.01649 -0.0371366 -0.00348441 0.0217075 
165 55 1 9.10706 9.37821 6.22478 -0.0132026 -0.0107241 0.0232587 
166 56 2 6.43503 4.30644 3.09074 0.00227153 0.000143333 -0.00174863 
167 56 1 6.2239 4.71975 3.999 -0.0180171 7.59257e-06 0.0134135 
168 56 1 7.31254 3.79258 3.21385 0.00329635 0.013972 -0.00561141 
169 57 2 10.4741 11.5036 2.37474 -0.00156474 0.00468956 0.00403317 
170 57 1 10.7913 10.9144 1.60172 -0.0171716 -0.0100632 -0.00835422 
171 57 1 9.83483 12.1881 1.96368 0.000853372 -0.00124505 -0.0126291 
172 58 2 3.40396 15.4035 0.389201 -0.00275897 -0.00365511 -0.00185035 
173 58 1 3.35482 14.8316 1.25047 -0.0184241 -0.0202235 0.00955328 
174 58 1 2.55423 15.97 0.380076 -0.0116995 -0.00203596 -0.00089423 
175 59 2 -1.25363 7.70596 16.9272 -0.000903214 -0.00155939 0.00164792 
176 59 1 -0.952245 7.02024 17.6008 0.00833838 -0.00310034 0.0308861 
177 59 1 -0.864096 7.42279 16.0193 0.0132717 0.0183753 0.00386812 
178 60 2 10.9613 14.3431 9.22567 0.0011565 -0.00170955 -0.00188777 
179 60 1 11.9594 14.2819 9.44114 0.0209256 -0.00821852 0.0134933 
180 60 1 10.6743 13.4223 8.89302 -0.0173012 -0.0096036 0.00351073 
181 61 2 18.579 4.66769 13.2858 0.000650907 0.00300454 0.00227142 
182 61 1 17.597 4.89325 13.1537 0.0434462 0.00650483 -0.0364148 
183 61 1 19.0855 4.83051 12.4077 -0.00239666 0.00743129 -0.0142535 
184 62 2 10.4955 0.862393 19.1088 -0.00295679 0.0027914 0.000273638 
185 62 1 11.4138 1.29392 18.9957 0.0166326 -0.0122967 0.00373479 
186 62 1 9.84918 1.63088 19.3022 -0.0197943 -0.00594305 -0.00697453 
187 63 2 7.29375 19.3341 6.85513 0.000316937 -0.0014132 -0.00144722 
188 63 1 7.11938 19.2897 7.86378 0.0204938 -0.0200563 0.0348967 
189 63 1 6.44437 19.7315 6.45388 0.0163114 0.000944087 -0.0106925 
190 64 2 18.0508 4.63141 4.22899 -0.00400163 -0.00385489 0.00413177 
191 64 1 18.6531 3.83287 4.02439 -0.00169144 0.0189662 0.0130872 
192 64 1 17.447 4.34127 4.99967 -0.0125372 0.03247 0.00702092 
193 65 2 18.3351 6.94883 3.08556 0.00237587 0.00536012 0.00150047 
194 65 1 17.4609 7.423 3.24639 0.00833421 0.0172765 -0.00648428 
195 65 1 18.2001 6.00706 3.50023 -0.01371 -0.0168182 0.0236518 
196 66 2 13.0745 3.46949 5.58952 0.00512552 -0.00254934 0.00496269 
197 66 1 13.1869 4.35023 5.08264 -0.00423006 0.00702584 -0.0101546 
198 66 1 13.5467 3.59927 6.49147 -0.000811731 0.0325879 -0.0231294 
199 67 2 16.9435 16.6452 7.24409 0.000879198 0.00115482 -0.00232131 
200 67 1 16.2223 16.4287 7.93734 0.00499706 0.00384883 0.00482238 
201 67 1 17.3303 15.7618 6.91682 0.00847226 -0.0205029 0.000158057 
202 68 2 1.34437 2.63375 16.2264 0.00433611 0.0010259 0.00116838 
203 68 1 2.23837 2.65276 15.7389 -0.0154161 -0.018818 -0.00906874 
204 68 1 0.615302 2.6127 15.5161 0.0061507 8.04793e-06 0.0104086 
205 69 2 2.94915 19.8201 8.04816 -0.00311678 -0.00940035 -0.000422373 
206 69 1 2.0683 20.3386 7.99575 0.00340819 0.0262047 -0.0192648 
207 69 1 2.65014 18.8658 7.84398 -0.011103 0.0226685 0.0274229 
208 70 2 16.0216 9.41161 -0.375625 -0.00243018 0.00357451 -0.00495365 
209 70 1 15.2505 9.65224 -1.00164 0.00681267 -0.0053572 0.0170183 
210 70 1 15.7049 9.67773 0.570711 0.0123442 -0.0239247 -0.0154872 
211 71 2 12.091 11.0524 6.80804 -0.00183106 -0.00014236 0.00111831 
212 71 1 11.6111 11.3321 7.66247 -0.00357095 0.00982208 -0.00565031 
213 71 1 11.44 11.3276 6.0661 -0.0162315 -0.0249779 -0.0193814 
214 72 2 14.9409 16.454 9.17794 0.000346775 0.00967536 -0.00228211 
215 72 1 15.4521 16.5748 10.0593 -0.0205436 -0.00359415 -0.00135405 
216 72 1 14.3423 15.6428 9.3284 0.0211319 0.0211505 -0.011602 
217 73 2 10.0356 14.5189 11.8615 -0.00130507 -0.000877939 -0.00511784 
218 73 1 10.2733 13.6495 12.3528 -0.00495778 0.0064057 -0.0208999 
219 73 1 10.3474 14.4115 10.8947 0.0349614 -0.00826209 0.018324 
220 74 2 0.329668 5.19754 11.3076 -0.00139089 -0.00305824 -0.00284123 
221 74 1 1.23242 4.84547 11.6221 -0.00504589 -0.0183611 -0.00585086 
222 74 1 0.472797 6.18835 11.0894 -0.00332885 0.00338043 0.0103649 
223 75 2 2.94299 0.208705 13.8193 0.00403106 -0.000399942 0.00342384 
224 75 1 2.68427 -0.196137 14.7235 -0.0213178 0.00622268 0.0133964 
225 75 1 3.26259 1.14839 14.0661 0.00352428 0.00590993 0.0147183 
226 76 2 20.4935 7.86356 10.8837 0.00468238 -0.00430662 -0.0025329 
227 76 1 20.4137 8.15915 9.90546 0.00712264 -0.00242243 0.0086754 
228 76 1 19.6494 8.17695 11.3532 0.0113926 0.0210436 0.00659489 
229 77 2 8.56519 15.4869 -0.151425 -0.00469067 -0.00552502 0.00242423 
230 77 1 8.73638 14.6394 0.395397 -0.0136752 -0.00139565 -0.0132665 
231 77 1 7.618 15.763 0.126279 -0.00831235 0.00343204 -0.0157264 
232 78 2 13.5058 12.3063 0.241169 0.0026269 0.009138 -0.00324712 
233 78 1 14.4619 12.4241 -0.0978545 -0.0118858 0.0102486 -0.015959 
234 78 1 13.0148 13.1318 -0.125422 0.0102246 -0.000471373 -0.0270302 
235 79 2 16.4767 20.1693 -0.668958 0.00615302 0.00175812 0.000641607 
236 79 1 15.6548 19.8911 -0.128622 0.0201269 0.0101565 0.0266263 
237 79 1 17.2872 19.7856 -0.175939 -0.0159261 -0.0216056 0.0213606 
238 80 2 16.1267 7.14386 16.1253 -0.000912609 0.00290982 0.00137691 
239 80 1 17.08 7.37684 16.4109 0.0128186 -0.0016909 0.0225595 
240 80 1 16.1874 6.46884 15.3607 -0.0325518 -0.011531 0.00758506 
241 81 2 14.1065 9.77389 11.7478 -0.000809387 0.00491991 0.000488604 
242 81 1 14.6061 10.6664 11.7048 -0.00383799 0.000621167 -0.0272233 
243 81 1 14.8263 9.07476 11.5599 0.0155446 -0.0190599 0.00838211 
244 82 2 11.3559 19.0516 0.903094 -0.00181509 -0.00236301 -6.64739e-06 
245 82 1 10.9039 19.668 0.218372 0.0038573 0.0133908 0.0103452 
246 82 1 11.2496 18.1052 0.506622 -0.014495 -0.00685132 0.00124829 
247 83 2 2.99477 10.9228 8.92083 0.00123302 0.0076777 0.000987726 
248 83 1 3.98396 10.9439 9.21779 0.0230621 -0.00124719 0.0167756 
249 83 1 2.89392 10.0614 8.40456 -0.000563811 -0.0141307 0.0202775 
250 84 2 10.3091 5.54498 4.66668 -0.00812899 0.00606376 0.00412611 
251 84 1 10.2227 4.61197 5.07398 -0.00647428 -0.0272368 -0.00850649 
252 84 1 10.0687 5.43721 3.67738 -0.0238332 -0.001476 -0.00404436 
253 85 2 14.5248 15.1967 15.0257 0.00150561 -8.29812e-06 7.96356e-05 
254 85 1 15.0454 14.6163 15.6935 -0.0188554 0.013583 0.0150169 
255 85 1 13.6815 15.4886 15.4948 -0.0080751 -0.00839194 0.000669783 
256 86 2 19.8175 -1.177 18.017 0.00455446 0.0021543 0.00391914 
257 86 1 19.2921 -0.674626 17.2902 -0.00950625 -0.0164366 0.0119647 
258 86 1 20.6267 -0.593096 18.2551 -0.0327927 0.00317172 -0.00371274 
259 87 2 14.8095 14.5491 12.3906 0.00279119 -0.0010244 -0.000268301 
260 87 1 15.3587 15.3652 12.0976 -0.0335044 -0.0159507 0.000799202 
261 87 1 14.6116 14.7349 13.3799 0.0294038 0.00388763 -0.013992 
262 88 2 6.14289 14.4402 6.65363 -8.0928e-05 -0.000947544 0.00405325 
263 88 1 6.85988 15.1634 6.51987 -0.00510711 -0.00623133 -0.0111611 
264 88 1 5.861 14.5751 7.63063 -0.0244163 -0.012173 -0.024262 
265 89 2 14.8879 9.42893 15.3822 0.00322217 -0.00561373 0.000535948 
266 89 1 15.6186 9.86429 14.814 -0.0167322 -0.0192461 -0.0156684 
267 89 1 15.2695 8.51509 15.6466 0.0268174 0.00491996 0.0220573 
268 90 2 5.41896 15.005 9.20321 0.00120239 -0.0091724 -0.00490446 
269 90 1 4.44165 14.8604 9.49545 -0.00131653 -0.0213383 0.0159365 
270 90 1 5.69716 15.8586 9.69261 0.00332428 0.0215978 -0.0122193 
271 91 2 5.86233 0.858306 20.3175 -0.00040588 -0.00712109 0.0049352 
272 91 1 6.21937 0.598761 19.395 -0.00687656 -0.0297619 -0.0237949 
273 91 1 5.8909 1.88044 20.3449 0.00603577 -0.0158883 -0.0211565 
274 92 2 8.6616 7.47423 0.760807 0.000725078 0.00534007 0.000308831 
275 92 1 8.96918 8.30447 0.230117 -0.007865 -0.00241806 0.0289938 
276 92 1 8.38807 7.82821 1.68391 -0.00192742 0.0259534 -0.00847531 
277 93 2 19.8374 0.723332 10.2793 -0.00372984 -0.000352454 -0.00531138 
278 93 1 20.0925 0.815873 9.29221 0.0179369 -0.00644268 0.0100788 
279 93 1 18.9157 1.15761 10.3479 -0.0228683 0.00491248 0.0212203 
280 94 2 0.249753 18.0474 10.7605 0.00232054 0.00756546 -0.0013348 
281 94 1 -0.0367775 17.8687 9.79073 -0.0186603 -0.0107396 0.0203483 
282 94 1 0.173526 19.0656 10.819 0.00999378 -0.00867684 -0.0281871 
283 95 2 18.0065 0.674826 2.60555 -0.00353355 0.00330018 -0.00228168 
284 95 1 18.3115 0.325855 1.69202 -0.00423344 -0.0306029 -0.0118986 
285 95 1 17.8243 -0.182427 3.12541 -0.017279 0.00762752 -0.00146241 
286 96 2 12.1527 11.6598 16.544 -5.52225e-05 0.00631257 0.00315892 
287 96 1 12.3764 11.4128 15.5781 -0.0224552 0.0194552 -0.0155256 
288 96 1 11.9204 12.6505 16.5516 -0.015212 -0.00266886 -0.00934877 
289 97 2 2.70107 8.7515 5.15445 -0.00537044 -0.00737731 0.00168944 
290 97 1 3.59818 8.31149 4.98424 0.0273238 -0.0279696 -0.0239019 
291 97 1 1.99581 8.10571 4.79288 -0.0195863 -0.00894471 -0.0209354 
292 98 2 12.015 19.6012 12.771 0.00579462 0.00520169 -0.000241285 
293 98 1 11.7562 18.9863 12.0151 0.00921029 -0.0166744 0.0195544 
294 98 1 11.9328 19.0182 13.6058 -0.0100595 -0.000717503 -0.000162853 
295 99 2 4.92657 2.75147 11.6938 0.00316814 -0.00327574 4.76897e-05 
296 99 1 4.85563 2.10598 10.8982 0.00752701 0.0131704 -0.0275795 
297 99 1 5.35993 2.19369 12.4356 0.000411517 0.0233481 0.0117372 
298 100 2 11.7893 10.1903 20.378 -0.00221941 -0.00478178 0.00221401 
299 100 1 12.4632 10.9512 20.2409 -0.0175698 -0.00536667 0.0238487 
300 100 1 12.3145 9.32578 20.2352 0.0143509 0.0279884 -0.000696994 
301 101 2 17.5969 12.5149 10.0653 0.00680586 -0.000765473 0.00981181 
302 101 1 18.1222 13.3588 9.85818 0.00546906 0.0102254 -0.0160396 
303 101 1 18.0869 11.7992 9.53005 0.00690917 -0.000667987 0.000334254 
304 102 2 13.9231 9.95688 17.8556 -0.0139976 -0.00513983 -0.00207165 
305 102 1 14.3382 9.74158 16.9443 -0.00803339 0.00591264 -0.00638788 
306 102 1 13.2308 10.6712 17.6235 0.0051122 0.00248197 -0.00667837 
307 103 2 6.58303 13.2629 10.917 -0.00243211 -0.00218273 -0.00116994 
308 103 1 6.17538 13.8074 10.1516 0.011806 0.00442507 -0.0106191 
309 103 1 6.92685 13.9887 11.5523 -0.0129159 -0.0241893 -0.00527729 
310 104 2 16.1397 1.72808 12.892 0.00876377 0.000985327 0.00470851 
311 104 1 15.24 2.13633 12.614 0.000464272 -0.00118922 0.00377644 
312 104 1 16.2094 1.8694 13.8906 -0.0317726 0.00174739 0.0189671 
313 105 2 11.0485 -0.982262 8.69188 0.00385547 -0.00366505 0.00447476 
314 105 1 10.739 -0.305356 7.9959 -0.00961145 0.000898511 0.00108293 
315 105 1 12.0663 -0.890303 8.75854 0.0148065 0.0216077 -0.00946577 
316 106 2 8.75864 3.01524 19.2378 -0.00166474 -0.010605 0.00598421 
317 106 1 8.60558 2.7065 18.2724 -0.0106367 -0.0216753 -0.0109057 
318 106 1 9.08375 3.9708 19.146 0.0165003 -0.0195307 0.0153866 
319 107 2 19.2738 3.76073 9.30443 4.47803e-05 -0.00060444 -0.00132372 
320 107 1 18.5466 3.15863 9.69145 0.0159575 0.00118298 0.0175245 
321 107 1 19.6757 4.26275 10.0988 -0.0172918 0.00228837 -0.00253811 
322 108 2 6.06565 1.27119 13.6826 0.000477522 0.0047727 -0.00113755 
323 108 1 5.95736 0.357018 14.1 -0.025814 0.000137781 0.0218986 
324 108 1 7.01221 1.24761 13.2866 -0.0116743 -0.00410417 0.0115609 
325 109 2 2.67692 13.5046 16.79 -0.0015394 -0.00149413 0.00632378 
326 109 1 2.68749 13.2229 15.8003 -0.0244778 0.0160124 -0.00711508 
327 109 1 2.9434 14.4946 16.785 0.00941902 -0.00602846 0.00512148 
328 110 2 1.67052 17.6564 6.93794 0.00139946 0.00602584 0.00109907 
329 110 1 1.55651 18.0846 6.01972 0.00703002 0.0137331 -0.0190465 
330 110 1 2.02838 16.7158 6.75297 -0.0129369 -0.0210514 0.0135993 
331 111 2 16.6115 3.83871 6.38757 0.00146483 -0.00222404 0.00219537 
332 111 1 16.6815 2.84737 6.1454 -0.00799622 -0.0112581 0.00234565 
333 111 1 15.7911 3.89078 6.9974 0.012188 -0.000502565 -0.00647241 
334 112 2 8.92305 19.4284 14.8801 0.00167603 -0.00124592 0.0110395 
335 112 1 8.97114 20.0964 14.1092 -0.0122659 -0.00514776 -0.0226745 
336 112 1 8.00097 19.0066 14.7682 -0.0188301 0.0453903 0.02613 
337 113 2 19.2043 8.252 5.91394 0.00155555 -0.00678618 -0.00717258 
338 113 1 19.8813 7.7558 5.33089 -0.0050396 -0.015801 -0.00799263 
339 113 1 18.5509 7.53424 6.25255 0.0229446 -0.0199751 0.012836 
340 114 2 18.4396 8.65896 12.7441 0.00142213 0.00745313 -0.0065799 
341 114 1 17.8368 9.34848 13.2145 -0.0367097 -0.0133414 0.00489872 
342 114 1 18.7709 8.01802 13.475 0.00498102 -0.0308366 -0.00154864 
343 115 2 0.908208 16.4775 17.4551 0.00323953 -0.0024604 -0.000156366 
344 115 1 0.25997 16.0658 16.7825 0.00605401 0.000743932 0.0242585 
345 115 1 0.498647 17.4052 17.6322 0.0190097 0.0392585 -0.00929725 
346 116 2 9.9083 5.29347 1.98596 0.000977873 -0.0020823 -0.00202105 
347 116 1 10.8826 5.48923 1.73371 -0.0135613 0.0199594 0.0112117 
348 116 1 9.36552 6.01772 1.51317 -0.00583075 0.0325004 -0.00234972 
349 117 2 12.2752 17.2342 17.2139 -0.00123346 0.00740179 -0.00219797 
350 117 1 11.6936 17.1856 18.0437 -0.0153953 -0.0150458 0.0158726 
351 117 1 13.1958 16.9074 17.5093 -0.000678037 -0.0139715 0.00464073 
352 118 2 15.9436 5.26077 14.095 0.00760983 -0.00107622 -0.00214094 
353 118 1 16.0043 4.41376 14.6578 -0.0245634 0.00463755 0.00763156 
354 118 1 14.977 5.31919 13.7539 -0.00114441 0.0236596 -0.0114004 
355 119 2 4.28755 18.0775 12.7796 0.00126822 -0.0041147 -0.00240673 
356 119 1 3.48855 17.4523 12.6315 -0.0169106 0.00205615 0.0208797 
357 119 1 3.84242 18.9664 13.0286 0.00684138 0.0181376 -0.0188515 
358 120 2 10.4502 17.176 12.2681 -0.00136961 0.000295838 -0.00323666 
359 120 1 10.3586 16.1678 12.1263 0.0300555 0.00198115 -0.0178142 
360 120 1 10.7574 17.2953 13.2349 0.0010008 -0.0189937 -0.0268336 
361 121 2 3.77707 9.06951 18.9278 0.00653468 0.00625806 0.00151008 
362 121 1 3.76489 9.98157 18.4739 -0.0328291 0.0224315 -0.000465938 
363 121 1 4.71822 9.01027 19.3143 -0.00075435 0.0269432 -0.00837238 
364 122 2 19.3134 10.4634 1.93059 0.0028089 0.00631232 -0.000252119 
365 122 1 20.21 10.7221 1.51183 -0.0110552 -0.0281046 0.00581551 
366 122 1 18.6343 10.8163 1.25689 0.0188594 0.0332754 -0.0172187 
367 123 2 19.096 2.44079 14.6242 0.00511365 0.00654179 0.00351596 
368 123 1 19.0249 3.27741 14.03 -0.00258292 -0.00178044 -0.0113387 
369 123 1 19.2056 1.64768 13.9863 -0.00108556 -0.0128859 0.0133998 
370 124 2 16.0691 12.98 19.4764 -0.00417337 -0.000762925 -0.00320999 
371 124 1 16.1656 13.4821 20.3648 0.011291 0.00138034 -0.0140112 
372 124 1 16.8255 12.2896 19.4871 -0.0104331 0.0282594 0.00635778 
373 125 2 16.1474 2.61751 2.15479 -0.00598171 -0.00233715 -0.00924879 
374 125 1 16.8546 1.90215 2.33407 0.00821657 0.0158449 -0.0250268 
375 125 1 15.3747 2.39462 2.76855 -0.00438486 -0.0120768 0.00875905 
376 126 2 15.7091 7.10695 8.69463 -0.0048798 0.00377963 0.00702634 
377 126 1 15.9714 7.54876 9.57184 -0.014028 -0.0203585 -0.00419382 
378 126 1 14.8819 6.55188 8.93071 -0.0127663 -0.023797 0.0145474 
379 127 2 9.76172 7.5375 10.7189 0.00193405 0.00172737 0.00212713 
380 127 1 9.30901 6.69189 11.0792 0.000541121 0.0203884 -0.0165297 
381 127 1 9.00625 8.22376 10.7154 0.00564533 0.0244341 -0.00055933 
382 128 2 16.4611 1.24034 5.56662 0.0044616 0.00134175 0.000341857 
383 128 1 16.1576 0.432051 6.11431 -0.00165924 0.0307854 -0.0295732 
384 128 1 15.7216 1.39147 4.8822 0.0183518 0.0124322 0.0113679 
385 129 2 16.8398 10.5638 13.8356 0.00280988 0.00551199 -0.00178427 
386 129 1 16.381 11.0909 13.0848 -0.0234044 0.00651716 0.00817254 
387 129 1 17.2455 11.286 14.4422 0.00965999 -0.0119092 0.00937386 
388 130 2 9.70573 3.08544 11.4389 -0.000639144 0.00331123 -0.00194562 
389 130 1 10.0226 3.25805 10.474 0.0148701 0.0213527 0.0159654 
390 130 1 10.5251 2.8096 11.9755 0.0426431 -0.0148801 -0.00213674 
391 131 2 8.29063 5.39523 11.5262 -0.00292231 0.000559018 0.00430926 
392 131 1 7.42298 5.21802 11.02 -0.0288237 -0.0230082 -0.0118368 
393 131 1 8.8029 4.50573 11.5283 -0.00369844 0.00481484 -0.00140582 
394 132 2 2.3373 7.55059 20.6861 0.00191605 -0.0012872 -0.00462348 
395 132 1 2.77574 8.09037 19.9294 -0.020213 0.00577556 0.0190049 
396 132 1 1.33638 7.74673 20.636 -0.00874118 0.0165767 -0.00201379 
397 133 2 5.26796 7.01398 7.68607 -0.00209092 0.000332195 -0.00373779 
398 133 1 5.704 6.85353 8.57972 -0.0462125 -0.0156002 -0.00831314 
399 133 1 5.58621 7.93292 7.36777 0.016773 0.0123654 0.00767037 
400 134 2 3.69918 2.64828 14.6678 0.00369337 0.00453222 0.000570151 
401 134 1 4.68785 2.43706 14.5632 -0.0148968 0.015432 0.0208759 
402 134 1 3.48169 3.3859 14.0067 -0.0205049 0.016003 0.0110046 
403 135 2 16.4776 14.0767 1.9253 -0.000255582 -0.00233974 0.00597904 
404 135 1 17.1911 14.7106 2.29758 0.0163028 -0.0122224 0.0263101 
405 135 1 16.3983 13.3372 2.63192 -0.0380364 0.00618985 0.00115183 
406 136 2 5.79187 14.4149 16.4933 0.00404084 -0.00153938 -0.00190067 
407 136 1 5.63585 13.5026 16.0601 0.021744 -0.0284342 -0.0143756 
408 136 1 4.90126 14.9127 16.5346 -0.0245155 -0.00553505 -0.00748274 
409 137 2 10.3947 3.74982 8.92166 -0.00117066 0.00254631 0.00129177 
410 137 1 10.2016 3.33357 8.02707 0.00336004 0.00967633 0.00168974 
411 137 1 10.5872 4.73839 8.7424 -0.00737786 0.0111865 0.0174431 
412 138 2 6.16839 9.11318 20.2503 0.00195941 0.00436186 -0.00676835 
413 138 1 6.91197 8.42888 20.2804 0.00129435 0.0102985 0.00272335 
414 138 1 5.55604 8.93367 21.0562 0.0115117 -0.00173392 0.0190423 
415 139 2 4.88734 1.07244 9.54727 -0.0038636 0.000108916 -0.0027379 
416 139 1 4.11451 0.573997 9.09687 0.0194123 -0.00427968 -0.00401571 
417 139 1 5.65982 0.3993 9.56574 -0.00962431 -0.00682437 0.00903344 
418 140 2 10.9613 6.39258 8.54176 0.00241174 0.00106317 -0.00260139 
419 140 1 10.4664 6.87092 9.29984 -0.000964039 0.00481179 0.00130138 
420 140 1 11.2098 7.12814 7.87352 0.00751072 0.032957 0.0104027 
421 141 2 4.90704 3.53217 8.32918 0.00440765 0.00131119 -0.00142422 
422 141 1 4.46084 3.35472 7.43182 -0.00782121 -0.0145759 0.0142407 
423 141 1 4.96025 2.619 8.78277 0.00180762 0.0315487 0.0134715 
424 142 2 6.37413 3.52461 0.464504 -0.00962258 0.00719837 0.00340542 
425 142 1 6.40585 3.8807 1.42375 -0.00384758 0.00395352 -0.0107578 
426 142 1 7.336 3.309 0.18721 0.0145288 -0.00709256 0.00275667 
427 143 2 0.259311 5.14268 7.27829 0.00386874 0.00520555 -0.000940843 
428 143 1 -0.0472644 4.55037 8.06477 0.0213097 -0.0222812 0.0440582 
429 143 1 -0.582381 5.67141 7.05979 -0.0117542 -0.012035 -0.0355889 
430 144 2 9.40635 9.58737 -0.666776 -0.000984022 0.000559996 0.00342183 
431 144 1 9.24328 10.2975 -1.38079 -0.0531984 -0.00407178 0.00948739 
432 144 1 10.3265 9.82249 -0.284269 0.0131459 -0.0193204 0.0299035 
433 145 2 14.6899 1.69617 9.73996 0.00443698 -0.000237629 0.00823141 
434 145 1 14.3147 0.761541 9.59484 0.0127471 0.00938116 -0.0126037 
435 145 1 14.2843 2.05203 10.6067 0.0164764 -0.000284972 0.00667373 
436 146 2 2.94426 14.5585 10.0202 -0.00210206 -0.00232083 0.000240694 
437 146 1 2.43096 14.3196 10.8645 -0.00916876 -0.0274992 0.0192238 
438 146 1 2.48163 14.0838 9.24603 -0.00853638 0.023508 0.00583741 
439 147 2 17.4942 4.19016 0.406257 -0.00436433 0.00406487 0.0011859 
440 147 1 16.8998 3.72708 1.10813 -0.00281002 0.00834862 0.014683 
441 147 1 17.2411 5.17502 0.392625 -0.0110361 0.0304363 0.00605202 